<?xml version="1.0" encoding="UTF-8"?>

<!-- generated on Mo 15 Jun 2020 13:56:07 CEST by Eclipse SUMO GUI Version 1.1.0
<configuration xmlns:xsi="http://www.w3.org/2001/XMLSchema-instance" xsi:noNamespaceSchemaLocation="http://sumo.dlr.de/xsd/sumoConfiguration.xsd">

    <input>
        <net-file value="data/hello.net.xml"/>
        <route-files value="data/hello.rou.xml"/>
    </input>

    <output>
        <battery-output value="data/Battery.out.xml"/>
        <battery-output.precision value="4"/>
        <tripinfo-output value="tripinfo.xml"/>
    </output>

    <time>
        <begin value="0"/>
        <end value="10000"/>
    </time>

    <battery>
        <device.battery.probability value="1"/>
    </battery>

    <traci_server>
        <remote-port value="55495"/>
    </traci_server>

    <gui_only>
        <gui-settings-file value="data/hello.settings.xml"/>
    </gui_only>

</configuration>
-->

<tripinfos xmlns:xsi="http://www.w3.org/2001/XMLSchema-instance" xsi:noNamespaceSchemaLocation="http://sumo.dlr.de/xsd/tripinfo_file.xsd">
</tripinfos>
